TITLE     = "JHU-Axial Pump Data-Midspan | JHU-Axial Pump Data-Midspan | JHU-Axial Pump Data-Midspan | JHU-Axial Pump Data-Midspan | JHU-Axial Pump Data-Midspan | JHU-Axial Pump Data-Midspan | JHU-Axial Pump Data-Midspan | JHU-Axial Pump Data-Midspan | JHU-Axial Pump D"
VARIABLES = "x/Ls"
"y/Ls"
"u/Utip"
"v/Utip"
"uu/Utip2"
"vv/Utip2"
"blade"
ZONE T="data phase01"
 I=257, J=61, K=1, ZONETYPE=Ordered
 DATAPACKING=POINT
 DT=(SINGLE SINGLE SINGLE SINGLE SINGLE SINGLE SINGLE )
 -4.4511E-001 -9.2793E-002 4.0730E-001 3.8100E-002 1.5346E-003 1.0502E-003 0.0000E+000
 -4.4133E-001 -9.2793E-002 4.0840E-001 3.9593E-002 1.6875E-003 1.1412E-003 0.0000E+000
 -4.3754E-001 -9.2793E-002 4.0917E-001 3.8634E-002 1.6965E-003 1.1803E-003 0.0000E+000
 -4.3376E-001 -9.2793E-002 4.1112E-001 3.6007E-002 1.2542E-003 1.4328E-003 0.0000E+000
 -4.2998E-001 -9.2793E-002 4.1770E-001 3.2267E-002 1.1437E-003 1.4638E-003 0.0000E+000
 -4.2619E-001 -9.2793E-002 4.2699E-001 2.6815E-002 1.0189E-003 1.3661E-003 0.0000E+000
 -4.2241E-001 -9.2793E-002 4.3516E-001 2.0415E-002 7.5506E-004 1.1289E-003 0.0000E+000
 -4.1863E-001 -9.2793E-002 4.3884E-001 1.2399E-002 7.1463E-004 8.0757E-004 0.0000E+000
 -4.1484E-001 -9.2793E-002 4.4248E-001 7.4260E-003 7.3543E-004 7.1923E-004 0.0000E+000
 -4.1106E-001 -9.2793E-002 4.4704E-001 1.9650E-003 8.0978E-004 5.4021E-004 0.0000E+000
 -4.0728E-001 -9.2793E-002 4.5367E-001 -1.9470E-003 7.9770E-004 4.2413E-004 0.0000E+000
 -4.0349E-001 -9.2793E-002 4.5961E-001 -4.2770E-003 6.5219E-004 4.3732E-004 0.0000E+000
 -3.9971E-001 -9.2793E-002 4.6286E-001 -5.3580E-003 5.7093E-004 4.5152E-004 0.0000E+000
 -3.9593E-001 -9.2793E-002 4.6885E-001 -5.1740E-003 5.9321E-004 4.9375E-004 0.0000E+000
 -3.9215E-001 -9.2793E-002 4.7687E-001 -4.6970E-003 6.8408E-004 3.7668E-004 0.0000E+000
 -3.8836E-001 -9.2793E-002 4.8421E-001 -3.7400E-003 6.5940E-004 2.9185E-004 0.0000E+000
 -3.8458E-001 -9.2793E-002 4.8881E-001 -3.1910E-003 6.0509E-004 2.8323E-004 0.0000E+000
 -3.8080E-001 -9.2793E-002 4.9492E-001 -3.3300E-003 5.9960E-004 3.1726E-004 0.0000E+000
 -3.7701E-001 -9.2793E-002 5.0185E-001 -2.9540E-003 5.7941E-004 4.0903E-004 0.0000E+000
 -3.7323E-001 -9.2793E-002 5.0890E-001 -1.8490E-003 5.8992E-004 3.4966E-004 0.0000E+000
 -3.6945E-001 -9.2793E-002 5.1538E-001 -4.0900E-004 6.9494E-004 4.0544E-004 0.0000E+000
 -3.6566E-001 -9.2793E-002 5.2161E-001 1.8320E-003 7.9168E-004 4.7792E-004 0.0000E+000
 -3.6188E-001 -9.2793E-002 5.3049E-001 3.7770E-003 8.3826E-004 4.4874E-004 0.0000E+000
 -3.5810E-001 -9.2793E-002 5.4070E-001 5.3720E-003 7.7080E-004 4.2974E-004 0.0000E+000
 -3.5431E-001 -9.2793E-002 5.5051E-001 7.8710E-003 8.5479E-004 4.1358E-004 0.0000E+000
 -3.5053E-001 -9.2793E-002 5.6059E-001 1.0793E-002 9.4659E-004 4.1981E-004 0.0000E+000
 -3.4675E-001 -9.2793E-002 5.7108E-001 1.3190E-002 9.0254E-004 5.1054E-004 0.0000E+000
 -3.4296E-001 -9.2793E-002 5.8232E-001 1.5791E-002 8.2234E-004 5.3311E-004 0.0000E+000
 -3.3918E-001 -9.2793E-002 5.9232E-001 1.8371E-002 8.5396E-004 5.6226E-004 0.0000E+000
 -3.3540E-001 -9.2793E-002 6.0054E-001 2.1850E-002 1.0211E-003 6.8517E-004 0.0000E+000
 -3.3161E-001 -9.2793E-002 6.1039E-001 2.8050E-002 1.1362E-003 9.0667E-004 0.0000E+000
 -3.2783E-001 -9.2793E-002 6.2002E-001 3.5314E-002 1.0068E-003 1.0331E-003 0.0000E+000
 -3.2405E-001 -9.2793E-002 0.0000E+000 0.0000E+000 0.0000E+000 0.0000E+000 1.0000E+000
 -3.2026E-001 -9.2793E-002 0.0000E+000 0.0000E+000 0.0000E+000 0.0000E+000 1.0000E+000
 -3.1648E-001 -9.2793E-002 0.0000E+000 0.0000E+000 0.0000E+000 0.0000E+000 1.0000E+000
 -3.1270E-001 -9.2793E-002 0.0000E+000 0.0000E+000 0.0000E+000 0.0000E+000 1.0000E+000
 -3.0891E-001 -9.2793E-002 0.0000E+000 0.0000E+000 0.0000E+000 0.0000E+000 1.0000E+000
 -3.0513E-001 -9.2793E-002 0.0000E+000 0.0000E+000 0.0000E+000 0.0000E+000 1.0000E+000
 -3.0135E-001 -9.2793E-002 0.0000E+000 0.0000E+000 0.0000E+000 0.0000E+000 1.0000E+000
 -2.9757E-001 -9.2793E-002 0.0000E+000 0.0000E+000 0.0000E+000 0.0000E+000 1.0000E+000
 -2.9378E-001 -9.2793E-002 0.0000E+000 0.0000E+000 0.0000E+000 0.0000E+000 1.0000E+000
 -2.9000E-001 -9.2793E-002 0.0000E+000 0.0000E+000 0.0000E+000 0.0000E+000 1.0000E+000
 -2.8622E-001 -9.2793E-002 0.0000E+000 0.0000E+000 0.0000E+000 0.0000E+000 1.0000E+000
 -2.8243E-001 -9.2793E-002 0.0000E+000 0.0000E+000 0.0000E+000 0.0000E+000 1.0000E+000
 -2.7865E-001 -9.2793E-002 0.0000E+000 0.0000E+000 0.0000E+000 0.0000E+000 1.0000E+000
 -2.7487E-001 -9.2793E-002 3.6265E-001 2.1178E-001 2.1953E-004 5.2762E-004 0.0000E+000
 -2.7108E-001 -9.2793E-002 3.7246E-001 2.0783E-001 2.2487E-004 4.7508E-004 0.0000E+000
 -2.6730E-001 -9.2793E-002 3.7950E-001 2.0909E-001 2.5434E-004 4.5237E-004 0.0000E+000
 -2.6352E-001 -9.2793E-002 3.8426E-001 2.1303E-001 2.8774E-004 4.5675E-004 0.0000E+000
 -2.5973E-001 -9.2793E-002 3.8771E-001 2.1540E-001 3.0722E-004 4.4136E-004 0.0000E+000
 -2.5595E-001 -9.2793E-002 3.9121E-001 2.1763E-001 3.2158E-004 4.0668E-004 0.0000E+000
 -2.5217E-001 -9.2793E-002 3.9418E-001 2.2107E-001 3.2293E-004 3.6507E-004 0.0000E+000
 -2.4838E-001 -9.2793E-002 3.9600E-001 2.2388E-001 3.3062E-004 3.3970E-004 0.0000E+000
 -2.4460E-001 -9.2793E-002 3.9701E-001 2.2639E-001 3.3177E-004 3.2946E-004 0.0000E+000
 -2.4082E-001 -9.2793E-002 3.9746E-001 2.2783E-001 3.4350E-004 3.6770E-004 0.0000E+000
 -2.3703E-001 -9.2793E-002 3.9700E-001 2.2943E-001 3.6948E-004 4.4578E-004 0.0000E+000
 -2.3325E-001 -9.2793E-002 3.9711E-001 2.3153E-001 3.4263E-004 4.7758E-004 0.0000E+000
 -2.2947E-001 -9.2793E-002 3.9725E-001 2.3329E-001 3.3266E-004 4.9300E-004 0.0000E+000
 -2.2568E-001 -9.2793E-002 3.9618E-001 2.3617E-001 3.5098E-004 5.4598E-004 0.0000E+000
 -2.2190E-001 -9.2793E-002 3.9628E-001 2.3815E-001 3.7004E-004 5.8384E-004 0.0000E+000
 -2.1812E-001 -9.2793E-002 3.9708E-001 2.3787E-001 3.7259E-004 5.2194E-004 0.0000E+000
 -2.1433E-001 -9.2793E-002 3.8943E-001 2.3847E-001 3.8580E-004 3.7706E-004 0.0000E+000
 -2.1055E-001 -9.2793E-002 3.8975E-001 2.3985E-001 3.5743E-004 3.1843E-004 0.0000E+000
 -2.0677E-001 -9.2793E-002 3.9062E-001 2.4070E-001 3.5231E-004 3.1582E-004 0.0000E+000
 -2.0299E-001 -9.2793E-002 3.9048E-001 2.4192E-001 3.6071E-004 3.3454E-004 0.0000E+000
 -1.9920E-001 -9.2793E-002 3.8814E-001 2.4174E-001 3.7110E-004 3.5921E-004 0.0000E+000
 -1.9542E-001 -9.2793E-002 3.8526E-001 2.4038E-001 3.8154E-004 3.5413E-004 0.0000E+000
 -1.9164E-001 -9.2793E-002 3.8348E-001 2.3898E-001 3.9725E-004 3.5947E-004 0.0000E+000
 -1.8785E-001 -9.2793E-002 3.8312E-001 2.3987E-001 4.0940E-004 3.9397E-004 0.0000E+000
 -1.8407E-001 -9.2793E-002 3.8349E-001 2.4075E-001 3.8147E-004 4.0347E-004 0.0000E+000
 -1.8029E-001 -9.2793E-002 3.8207E-001 2.4072E-001 3.5218E-004 3.8283E-004 0.0000E+000
 -1.7650E-001 -9.2793E-002 3.7965E-001 2.3881E-001 3.5912E-004 3.7281E-004 0.0000E+000
 -1.7272E-001 -9.2793E-002 3.7725E-001 2.3739E-001 3.6770E-004 3.7306E-004 0.0000E+000
 -1.6894E-001 -9.2793E-002 3.7617E-001 2.3568E-001 3.6192E-004 3.5289E-004 0.0000E+000
 -1.6515E-001 -9.2793E-002 3.7585E-001 2.3352E-001 3.4646E-004 3.2529E-004 0.0000E+000
 -1.6137E-001 -9.2793E-002 3.7545E-001 2.3160E-001 3.3870E-004 3.4271E-004 0.0000E+000
 -1.5759E-001 -9.2793E-002 3.7609E-001 2.2941E-001 3.4985E-004 3.4438E-004 0.0000E+000
 -1.5380E-001 -9.2793E-002 3.7757E-001 2.2782E-001 3.1015E-004 3.5044E-004 0.0000E+000
 -1.5002E-001 -9.2793E-002 3.7879E-001 2.2623E-001 3.0119E-004 3.2200E-004 0.0000E+000
 -1.4624E-001 -9.2793E-002 3.7822E-001 2.2324E-001 3.3311E-004 3.0154E-004 0.0000E+000
 -1.4245E-001 -9.2793E-002 3.7914E-001 2.2040E-001 3.0818E-004 3.0290E-004 0.0000E+000
 -1.3867E-001 -9.2793E-002 3.8166E-001 2.2070E-001 3.2720E-004 2.4266E-004 0.0000E+000
 -1.3489E-001 -9.2793E-002 3.8435E-001 2.2070E-001 3.4327E-004 2.5493E-004 0.0000E+000
 -1.3110E-001 -9.2793E-002 3.8635E-001 2.2031E-001 3.5413E-004 2.7685E-004 0.0000E+000
 -1.2732E-001 -9.2793E-002 3.8810E-001 2.1992E-001 3.7152E-004 2.8781E-004 0.0000E+000
 -1.2354E-001 -9.2793E-002 3.8970E-001 2.1952E-001 4.1368E-004 3.0889E-004 0.0000E+000
 -1.1975E-001 -9.2793E-002 3.9080E-001 2.1868E-001 4.5559E-004 3.0354E-004 0.0000E+000
 -1.1597E-001 -9.2793E-002 3.9036E-001 2.1950E-001 5.0754E-004 2.6580E-004 0.0000E+000
 -1.1219E-001 -9.2793E-002 3.9066E-001 2.2014E-001 6.7874E-004 2.7280E-004 0.0000E+000
 -1.0840E-001 -9.2793E-002 3.9114E-001 2.2195E-001 8.0624E-004 3.4315E-004 0.0000E+000
 -1.0462E-001 -9.2793E-002 3.9163E-001 2.2376E-001 9.4731E-004 4.0512E-004 0.0000E+000
 -1.0084E-001 -9.2793E-002 3.9118E-001 2.2658E-001 1.0798E-003 4.4213E-004 0.0000E+000
 -9.7055E-002 -9.2793E-002 3.8835E-001 2.2817E-001 1.4358E-003 4.8878E-004 0.0000E+000
 -9.3272E-002 -9.2793E-002 3.8541E-001 2.2947E-001 1.9097E-003 5.0494E-004 0.0000E+000
 -8.9489E-002 -9.2793E-002 3.8330E-001 2.3378E-001 2.0487E-003 5.0572E-004 0.0000E+000
 -8.5706E-002 -9.2793E-002 3.8108E-001 2.3875E-001 2.1841E-003 5.5286E-004 0.0000E+000
 -8.1923E-002 -9.2793E-002 3.7958E-001 2.4082E-001 2.1964E-003 5.9079E-004 0.0000E+000
 -7.8139E-002 -9.2793E-002 3.7823E-001 2.4247E-001 2.2014E-003 6.3487E-004 0.0000E+000
 -7.4356E-002 -9.2793E-002 3.8044E-001 2.4422E-001 2.0642E-003 9.9918E-004 0.0000E+000
 -7.0573E-002 -9.2793E-002 3.7912E-001 2.4814E-001 2.1581E-003 9.3569E-004 0.0000E+000
 -6.6790E-002 -9.2793E-002 3.7674E-001 2.5112E-001 2.0519E-003 8.8544E-004 0.0000E+000
 -6.3006E-002 -9.2793E-002 3.7455E-001 2.5340E-001 2.1028E-003 8.4681E-004 0.0000E+000
 -5.9223E-002 -9.2793E-002 3.7224E-001 2.5917E-001 2.3553E-003 8.0702E-004 0.0000E+000
 -5.5440E-002 -9.2793E-002 3.7080E-001 2.6534E-001 2.1614E-003 9.2427E-004 0.0000E+000
 -5.1657E-002 -9.2793E-002 3.6724E-001 2.6697E-001 1.9546E-003 1.1130E-003 0.0000E+000
 -4.7874E-002 -9.2793E-002 3.6562E-001 2.6755E-001 1.7785E-003 1.1805E-003 0.0000E+000
 -4.4090E-002 -9.2793E-002 3.6748E-001 2.6949E-001 1.5664E-003 1.0888E-003 0.0000E+000
 -4.0307E-002 -9.2793E-002 3.6944E-001 2.7297E-001 1.3870E-003 1.0864E-003 0.0000E+000
 -3.6524E-002 -9.2793E-002 3.7256E-001 2.7750E-001 1.2196E-003 1.1602E-003 0.0000E+000
 -3.2741E-002 -9.2793E-002 3.7638E-001 2.8036E-001 1.0377E-003 1.2321E-003 0.0000E+000
 -2.8958E-002 -9.2793E-002 3.7852E-001 2.7845E-001 9.1735E-004 1.2583E-003 0.0000E+000
 -2.5174E-002 -9.2793E-002 3.8098E-001 2.7611E-001 8.6252E-004 1.4061E-003 0.0000E+000
 -2.1391E-002 -9.2793E-002 3.8522E-001 2.7001E-001 6.9654E-004 1.3955E-003 0.0000E+000
 -1.7608E-002 -9.2793E-002 3.9027E-001 2.6508E-001 5.9159E-004 1.3011E-003 0.0000E+000
 -1.3825E-002 -9.2793E-002 3.9364E-001 2.6105E-001 5.9416E-004 1.2364E-003 0.0000E+000
 -1.0042E-002 -9.2793E-002 3.9614E-001 2.5634E-001 5.8479E-004 1.1805E-003 0.0000E+000
 -6.2580E-003 -9.2793E-002 4.0086E-001 2.4858E-001 5.4892E-004 9.3907E-004 0.0000E+000
 -2.4750E-003 -9.2793E-002 4.0480E-001 2.4397E-001 5.2555E-004 8.7054E-004 0.0000E+000
 1.3080E-003 -9.2793E-002 4.0803E-001 2.4176E-001 5.0770E-004 9.5502E-004 0.0000E+000
 5.0910E-003 -9.2793E-002 4.0891E-001 2.3713E-001 5.0923E-004 1.0395E-003 0.0000E+000
 8.8740E-003 -9.2793E-002 4.0933E-001 2.3104E-001 4.5483E-004 1.0226E-003 0.0000E+000
 1.2658E-002 -9.2793E-002 4.1089E-001 2.2822E-001 4.3398E-004 1.0082E-003 0.0000E+000
 1.6441E-002 -9.2793E-002 4.1159E-001 2.2692E-001 4.1959E-004 1.0336E-003 0.0000E+000
 2.0224E-002 -9.2793E-002 4.1284E-001 2.2250E-001 4.6631E-004 9.9263E-004 0.0000E+000
 2.4007E-002 -9.2793E-002 4.1604E-001 2.1802E-001 4.9857E-004 9.3093E-004 0.0000E+000
 2.7790E-002 -9.2793E-002 4.1933E-001 2.1486E-001 4.7423E-004 8.5627E-004 0.0000E+000
 3.1574E-002 -9.2793E-002 4.2198E-001 2.1351E-001 4.6563E-004 9.4786E-004 0.0000E+000
 3.5357E-002 -9.2793E-002 4.2503E-001 2.1148E-001 4.3426E-004 9.1953E-004 0.0000E+000
 3.9140E-002 -9.2793E-002 4.2721E-001 2.0703E-001 4.5409E-004 7.8617E-004 0.0000E+000
 4.2923E-002 -9.2793E-002 4.3013E-001 2.0246E-001 4.6459E-004 7.9677E-004 0.0000E+000
 4.6706E-002 -9.2793E-002 4.3233E-001 1.9797E-001 4.9328E-004 7.4825E-004 0.0000E+000
 5.0490E-002 -9.2793E-002 4.3446E-001 1.9469E-001 5.3478E-004 7.0889E-004 0.0000E+000
 5.4273E-002 -9.2793E-002 4.3748E-001 1.9361E-001 5.6103E-004 6.6399E-004 0.0000E+000
 5.8056E-002 -9.2793E-002 4.4142E-001 1.9250E-001 5.6438E-004 5.9708E-004 0.0000E+000
 6.1839E-002 -9.2793E-002 4.4485E-001 1.9117E-001 5.0810E-004 6.9203E-004 0.0000E+000
 6.5622E-002 -9.2793E-002 4.4821E-001 1.8930E-001 4.8073E-004 7.8405E-004 0.0000E+000
 6.9406E-002 -9.2793E-002 4.5239E-001 1.8652E-001 4.8125E-004 8.0265E-004 0.0000E+000
 7.3189E-002 -9.2793E-002 4.5515E-001 1.8329E-001 4.7207E-004 7.4774E-004 0.0000E+000
 7.6972E-002 -9.2793E-002 4.5744E-001 1.8053E-001 4.4534E-004 7.5021E-004 0.0000E+000
 8.0755E-002 -9.2793E-002 4.6020E-001 1.7961E-001 4.1223E-004 7.9832E-004 0.0000E+000
 8.4538E-002 -9.2793E-002 4.6346E-001 1.7805E-001 4.0264E-004 9.2098E-004 0.0000E+000
 8.8322E-002 -9.2793E-002 4.6670E-001 1.7498E-001 3.8863E-004 9.6426E-004 0.0000E+000
 9.2105E-002 -9.2793E-002 4.6969E-001 1.7247E-001 3.7749E-004 1.0074E-003 0.0000E+000
 9.5888E-002 -9.2793E-002 4.7306E-001 1.7153E-001 3.8054E-004 9.8351E-004 0.0000E+000
 9.9671E-002 -9.2793E-002 4.7576E-001 1.7045E-001 3.9777E-004 8.4414E-004 0.0000E+000
 1.0345E-001 -9.2793E-002 4.7703E-001 1.6836E-001 4.6953E-004 7.3861E-004 0.0000E+000
 1.0724E-001 -9.2793E-002 4.7910E-001 1.6570E-001 4.9016E-004 6.9835E-004 0.0000E+000
 1.1102E-001 -9.2793E-002 4.8197E-001 1.6264E-001 4.8246E-004 7.0572E-004 0.0000E+000
 1.1480E-001 -9.2793E-002 4.8401E-001 1.5903E-001 5.2556E-004 7.5627E-004 0.0000E+000
 1.1859E-001 -9.2793E-002 4.8599E-001 1.5605E-001 5.4693E-004 7.5785E-004 0.0000E+000
 1.2237E-001 -9.2793E-002 4.8760E-001 1.5305E-001 6.0287E-004 6.4898E-004 0.0000E+000
 1.2615E-001 -9.2793E-002 4.8816E-001 1.4744E-001 7.3927E-004 6.3724E-004 0.0000E+000
 1.2994E-001 -9.2793E-002 4.8837E-001 1.4215E-001 8.7920E-004 7.6855E-004 0.0000E+000
 1.3372E-001 -9.2793E-002 4.8883E-001 1.4023E-001 9.4409E-004 8.0084E-004 0.0000E+000
 1.3750E-001 -9.2793E-002 4.9303E-001 1.4888E-001 6.1238E-004 7.5012E-004 0.0000E+000
 1.4129E-001 -9.2793E-002 4.9320E-001 1.4488E-001 6.4743E-004 7.6880E-004 0.0000E+000
 1.4507E-001 -9.2793E-002 4.9174E-001 1.3954E-001 6.9591E-004 8.5883E-004 0.0000E+000
 1.4885E-001 -9.2793E-002 4.8850E-001 1.3474E-001 7.1071E-004 8.7307E-004 0.0000E+000
 1.5264E-001 -9.2793E-002 4.9007E-001 1.3100E-001 7.5695E-004 8.2542E-004 0.0000E+000
 1.5642E-001 -9.2793E-002 4.9444E-001 1.2845E-001 7.2876E-004 9.2501E-004 0.0000E+000
 1.6020E-001 -9.2793E-002 4.9569E-001 1.2709E-001 6.0238E-004 8.9568E-004 0.0000E+000
 1.6399E-001 -9.2793E-002 4.9410E-001 1.2290E-001 6.5724E-004 7.6745E-004 0.0000E+000
 1.6777E-001 -9.2793E-002 4.9301E-001 1.1833E-001 6.6625E-004 8.1116E-004 0.0000E+000
 1.7155E-001 -9.2793E-002 4.9223E-001 1.1454E-001 6.4016E-004 7.2352E-004 0.0000E+000
 1.7534E-001 -9.2793E-002 4.9028E-001 1.0922E-001 6.4189E-004 7.2481E-004 0.0000E+000
 1.7912E-001 -9.2793E-002 4.8934E-001 1.0346E-001 6.8411E-004 7.3044E-004 0.0000E+000
 1.8290E-001 -9.2793E-002 4.8930E-001 9.8384E-002 7.0999E-004 7.5265E-004 0.0000E+000
 1.8668E-001 -9.2793E-002 4.8820E-001 9.5333E-002 7.4795E-004 7.4474E-004 0.0000E+000
 1.9047E-001 -9.2793E-002 4.8623E-001 9.3851E-002 6.9286E-004 8.0749E-004 0.0000E+000
 1.9425E-001 -9.2793E-002 4.8556E-001 8.9631E-002 6.2910E-004 8.9242E-004 0.0000E+000
 1.9803E-001 -9.2793E-002 4.8524E-001 8.5139E-002 5.6784E-004 9.1403E-004 0.0000E+000
 2.0182E-001 -9.2793E-002 4.8580E-001 8.0931E-002 4.9318E-004 9.4657E-004 0.0000E+000
 2.0560E-001 -9.2793E-002 4.8556E-001 7.5484E-002 5.3188E-004 8.9841E-004 0.0000E+000
 2.0938E-001 -9.2793E-002 4.8500E-001 7.2499E-002 5.7724E-004 8.2758E-004 0.0000E+000
 2.1317E-001 -9.2793E-002 4.8441E-001 6.8352E-002 5.7172E-004 7.3811E-004 0.0000E+000
 2.1695E-001 -9.2793E-002 4.8349E-001 6.4681E-002 5.3660E-004 7.0389E-004 0.0000E+000
 2.2073E-001 -9.2793E-002 4.8150E-001 5.9708E-002 4.5934E-004 6.8796E-004 0.0000E+000
 2.2452E-001 -9.2793E-002 4.7900E-001 5.5881E-002 4.4042E-004 6.4601E-004 0.0000E+000
 2.2830E-001 -9.2793E-002 4.7878E-001 5.2037E-002 4.1510E-004 6.1689E-004 0.0000E+000
 2.3208E-001 -9.2793E-002 4.8001E-001 4.8132E-002 3.7154E-004 5.5853E-004 0.0000E+000
 2.3587E-001 -9.2793E-002 4.8084E-001 4.3154E-002 4.5007E-004 5.0678E-004 0.0000E+000
 2.3965E-001 -9.2793E-002 4.7933E-001 4.0611E-002 5.1192E-004 5.0641E-004 0.0000E+000
 2.4343E-001 -9.2793E-002 4.7708E-001 3.8582E-002 4.7498E-004 4.8445E-004 0.0000E+000
 2.4722E-001 -9.2793E-002 4.7516E-001 3.6172E-002 4.4398E-004 4.2914E-004 0.0000E+000
 2.5100E-001 -9.2793E-002 4.7380E-001 3.3393E-002 3.7527E-004 3.7869E-004 0.0000E+000
 2.5478E-001 -9.2793E-002 4.7196E-001 3.1219E-002 3.2684E-004 3.5569E-004 0.0000E+000
 2.5857E-001 -9.2793E-002 4.7009E-001 3.0014E-002 3.1096E-004 3.5303E-004 0.0000E+000
 2.6235E-001 -9.2793E-002 4.6830E-001 2.8628E-002 2.9749E-004 3.0468E-004 0.0000E+000
 2.6613E-001 -9.2793E-002 4.6581E-001 2.6891E-002 3.2286E-004 2.6086E-004 0.0000E+000
 2.6992E-001 -9.2793E-002 4.6323E-001 2.4670E-002 3.8381E-004 2.4734E-004 0.0000E+000
 2.7370E-001 -9.2793E-002 4.6106E-001 2.2930E-002 4.3258E-004 2.4174E-004 0.0000E+000
 2.7748E-001 -9.2793E-002 4.5864E-001 2.1535E-002 4.5636E-004 2.7650E-004 0.0000E+000
 2.8126E-001 -9.2793E-002 4.5698E-001 1.9584E-002 4.6765E-004 3.1500E-004 0.0000E+000
 2.8505E-001 -9.2793E-002 4.5511E-001 1.7327E-002 4.7659E-004 3.3550E-004 0.0000E+000
 2.8883E-001 -9.2793E-002 4.5240E-001 1.5602E-002 4.6469E-004 3.5719E-004 0.0000E+000
 2.9261E-001 -9.2793E-002 4.4923E-001 1.4221E-002 4.5054E-004 3.6537E-004 0.0000E+000
 2.9640E-001 -9.2793E-002 4.4584E-001 1.2647E-002 4.5537E-004 3.6631E-004 0.0000E+000
 3.0018E-001 -9.2793E-002 4.4286E-001 1.1203E-002 4.6135E-004 3.6960E-004 0.0000E+000
 3.0396E-001 -9.2793E-002 4.4006E-001 1.0023E-002 4.6105E-004 3.6601E-004 0.0000E+000
 3.0775E-001 -9.2793E-002 4.3711E-001 8.9840E-003 4.7377E-004 3.6693E-004 0.0000E+000
 3.1153E-001 -9.2793E-002 4.3376E-001 7.6760E-003 4.8597E-004 3.7656E-004 0.0000E+000
 3.1531E-001 -9.2793E-002 4.2998E-001 6.1700E-003 4.4672E-004 3.8324E-004 0.0000E+000
 3.1910E-001 -9.2793E-002 4.2615E-001 6.0920E-003 3.9110E-004 3.8920E-004 0.0000E+000
 3.2288E-001 -9.2793E-002 4.2251E-001 7.3080E-003 3.8520E-004 3.9485E-004 0.0000E+000
 3.2666E-001 -9.2793E-002 4.1945E-001 8.1330E-003 4.0370E-004 3.8225E-004 0.0000E+000
 3.3045E-001 -9.2793E-002 4.1684E-001 8.0780E-003 4.4498E-004 3.5014E-004 0.0000E+000
 3.3423E-001 -9.2793E-002 4.1497E-001 7.6950E-003 5.2953E-004 3.3240E-004 0.0000E+000
 3.3801E-001 -9.2793E-002 4.1381E-001 8.4090E-003 5.7588E-004 3.3805E-004 0.0000E+000
 3.4180E-001 -9.2793E-002 4.1215E-001 8.9370E-003 5.5503E-004 3.6523E-004 0.0000E+000
 3.4558E-001 -9.2793E-002 4.1011E-001 9.6960E-003 5.2837E-004 3.8640E-004 0.0000E+000
 3.4936E-001 -9.2793E-002 4.0837E-001 1.0383E-002 6.4157E-004 5.0160E-004 0.0000E+000
 3.5315E-001 -9.2793E-002 4.0814E-001 1.2622E-002 5.8705E-004 4.8498E-004 0.0000E+000
 3.5693E-001 -9.2793E-002 4.0772E-001 1.5401E-002 5.5073E-004 4.9882E-004 0.0000E+000
 3.6071E-001 -9.2793E-002 4.0677E-001 1.7639E-002 5.9187E-004 4.8487E-004 0.0000E+000
 3.6450E-001 -9.2793E-002 4.0672E-001 1.8785E-002 6.4089E-004 4.8228E-004 0.0000E+000
 3.6828E-001 -9.2793E-002 4.0753E-001 1.9452E-002 6.8314E-004 4.4926E-004 0.0000E+000
 3.7206E-001 -9.2793E-002 4.0727E-001 2.0272E-002 6.5573E-004 4.0134E-004 0.0000E+000
 3.7585E-001 -9.2793E-002 4.0561E-001 2.0416E-002 6.8839E-004 3.8694E-004 0.0000E+000
 3.7963E-001 -9.2793E-002 4.0273E-001 2.1187E-002 7.4556E-004 3.7267E-004 0.0000E+000
 3.8341E-001 -9.2793E-002 3.9887E-001 2.2479E-002 7.7433E-004 3.7198E-004 0.0000E+000
 3.8719E-001 -9.2793E-002 3.9490E-001 2.2437E-002 8.5689E-004 3.9773E-004 0.0000E+000
 3.9098E-001 -9.2793E-002 3.9121E-001 2.1503E-002 9.1241E-004 4.3203E-004 0.0000E+000
 3.9476E-001 -9.2793E-002 3.8920E-001 2.1197E-002 8.8958E-004 4.5268E-004 0.0000E+000
 3.9854E-001 -9.2793E-002 3.8781E-001 2.1210E-002 8.5699E-004 4.6578E-004 0.0000E+000
 4.0233E-001 -9.2793E-002 3.8476E-001 2.1183E-002 8.4746E-004 4.8042E-004 0.0000E+000
 4.0611E-001 -9.2793E-002 3.8170E-001 2.0947E-002 8.3858E-004 4.5452E-004 0.0000E+000
 4.0989E-001 -9.2793E-002 3.7958E-001 1.9876E-002 8.3110E-004 4.3037E-004 0.0000E+000
 4.1368E-001 -9.2793E-002 3.7740E-001 1.8824E-002 8.6996E-004 4.5122E-004 0.0000E+000
 4.1746E-001 -9.2793E-002 3.7583E-001 1.7474E-002 8.6771E-004 4.2516E-004 0.0000E+000
 4.2124E-001 -9.2793E-002 3.7512E-001 1.6021E-002 7.9599E-004 3.8974E-004 0.0000E+000
 4.2503E-001 -9.2793E-002 3.7398E-001 1.5071E-002 7.2782E-004 4.0288E-004 0.0000E+000
 4.2881E-001 -9.2793E-002 3.7334E-001 1.4200E-002 6.3570E-004 3.7245E-004 0.0000E+000
 4.3259E-001 -9.2793E-002 3.7378E-001 1.4337E-002 6.2506E-004 3.7492E-004 0.0000E+000
 4.3638E-001 -9.2793E-002 3.7430E-001 1.4126E-002 5.7053E-004 3.9044E-004 0.0000E+000
 4.4016E-001 -9.2793E-002 3.7377E-001 1.2940E-002 5.2335E-004 3.8414E-004 0.0000E+000
 4.4394E-001 -9.2793E-002 3.7341E-001 1.2491E-002 5.5338E-004 3.6846E-004 0.0000E+000
 4.4773E-001 -9.2793E-002 3.7269E-001 1.3059E-002 5.9200E-004 3.5860E-004 0.0000E+000
 4.5151E-001 -9.2793E-002 3.7090E-001 1.4359E-002 6.7486E-004 3.8451E-004 0.0000E+000
 4.5529E-001 -9.2793E-002 3.6893E-001 1.6001E-002 8.6634E-004 4.0878E-004 0.0000E+000
 4.5908E-001 -9.2793E-002 3.6770E-001 1.7299E-002 1.0366E-003 4.7637E-004 0.0000E+000
 4.6286E-001 -9.2793E-002 3.6759E-001 1.7000E-002 1.0653E-003 4.5908E-004 0.0000E+000
 4.6664E-001 -9.2793E-002 3.6598E-001 1.7247E-002 1.1579E-003 6.3937E-004 0.0000E+000
 4.7043E-001 -9.2793E-002 3.6503E-001 1.8635E-002 1.3051E-003 6.2722E-004 0.0000E+000
 4.7421E-001 -9.2793E-002 3.6349E-001 2.1092E-002 1.5295E-003 5.4340E-004 0.0000E+000
 4.7799E-001 -9.2793E-002 3.5927E-001 2.3846E-002 2.0198E-003 5.4545E-004 0.0000E+000
 4.8177E-001 -9.2793E-002 3.5726E-001 2.7157E-002 2.1580E-003 6.1619E-004 0.0000E+000
 4.8556E-001 -9.2793E-002 3.5407E-001 2.9748E-002 2.1824E-003 6.9359E-004 0.0000E+000
 4.8934E-001 -9.2793E-002 3.4996E-001 3.2922E-002 2.1625E-003 9.4732E-004 0.0000E+000
 4.9312E-001 -9.2793E-002 3.4651E-001 3.7043E-002 2.2735E-003 1.2472E-003 0.0000E+000
 4.9691E-001 -9.2793E-002 3.4453E-001 3.9854E-002 2.1782E-003 1.4392E-003 0.0000E+000
 5.0069E-001 -9.2793E-002 3.4054E-001 4.1367E-002 2.4279E-003 1.5566E-003 0.0000E+000
 5.0447E-001 -9.2793E-002 3.3921E-001 4.3782E-002 2.3667E-003 1.8237E-003 0.0000E+000
 5.0826E-001 -9.2793E-002 3.4023E-001 4.5018E-002 2.2778E-003 2.2476E-003 0.0000E+000
 5.1204E-001 -9.2793E-002 3.3514E-001 4.7932E-002 2.5373E-003 2.3642E-003 0.0000E+000
 5.1582E-001 -9.2793E-002 3.3263E-001 4.8425E-002 2.5667E-003 2.2658E-003 0.0000E+000
 5.1961E-001 -9.2793E-002 3.2797E-001 4.9136E-002 2.6159E-003 2.1960E-003 0.0000E+000
 5.2339E-001 -9.2793E-002 3.2380E-001 5.0300E-002 2.3865E-003 2.3234E-003 0.0000E+000
 -4.4511E-001 -8.8956E-002 4.1573E-001 3.3466E-002 1.3976E-003 8.1520E-004 0.0000E+000
 -4.4133E-001 -8.8956E-002 4.1862E-001 3.5426E-002 1.5057E-003 9.2806E-004 0.0000E+000
 -4.3754E-001 -8.8956E-002 4.1805E-001 3.2917E-002 1.5730E-003 1.0224E-003 0.0000E+000
 -4.3376E-001 -8.8956E-002 4.1909E-001 2.9181E-002 1.2708E-003 9.7035E-004 0.0000E+000
 -4.2998E-001 -8.8956E-002 4.2315E-001 2.4162E-002 1.1271E-003 9.8119E-004 0.0000E+000
 -4.2619E-001 -8.8956E-002 4.3084E-001 2.0701E-002 8.0717E-004 9.0969E-004 0.0000E+000
 -4.2241E-001 -8.8956E-002 4.3822E-001 1.4747E-002 6.6786E-004 7.5569E-004 0.0000E+000
 -4.1863E-001 -8.8956E-002 4.4389E-001 8.0140E-003 6.4092E-004 5.8248E-004 0.0000E+000
 -4.1484E-001 -8.8956E-002 4.4663E-001 2.4820E-003 6.0312E-004 4.5877E-004 0.0000E+000
 -4.1106E-001 -8.8956E-002 4.4990E-001 -2.8910E-003 6.8957E-004 3.9563E-004 0.0000E+000
 -4.0728E-001 -8.8956E-002 4.5517E-001 -5.8390E-003 6.8652E-004 3.9480E-004 0.0000E+000
 -4.0349E-001 -8.8956E-002 4.5964E-001 -7.5070E-003 6.2357E-004 4.1919E-004 0.0000E+000
 -3.9971E-001 -8.8956E-002 4.6267E-001 -1.0102E-002 5.4148E-004 5.1269E-004 0.0000E+000
 -3.9593E-001 -8.8956E-002 4.6981E-001 -1.0468E-002 4.6432E-004 4.3652E-004 0.0000E+000
 -3.9215E-001 -8.8956E-002 4.7881E-001 -9.0780E-003 5.1164E-004 2.8970E-004 0.0000E+000
 -3.8836E-001 -8.8956E-002 4.8685E-001 -8.2850E-003 5.8509E-004 2.5215E-004 0.0000E+000
 -3.8458E-001 -8.8956E-002 4.9215E-001 -8.7780E-003 5.4175E-004 2.3035E-004 0.0000E+000
 -3.8080E-001 -8.8956E-002 4.9804E-001 -1.0501E-002 5.0604E-004 3.4986E-004 0.0000E+000
 -3.7701E-001 -8.8956E-002 5.0397E-001 -1.0823E-002 5.4500E-004 4.2591E-004 0.0000E+000
 -3.7323E-001 -8.8956E-002 5.0998E-001 -9.5260E-003 6.5911E-004 3.8911E-004 0.0000E+000
 -3.6945E-001 -8.8956E-002 5.1685E-001 -7.9810E-003 7.9544E-004 3.4544E-004 0.0000E+000
 -3.6566E-001 -8.8956E-002 5.2459E-001 -6.4550E-003 8.9521E-004 3.5468E-004 0.0000E+000
 -3.6188E-001 -8.8956E-002 5.3358E-001 -5.2240E-003 9.6963E-004 3.7686E-004 0.0000E+000
 -3.5810E-001 -8.8956E-002 5.4389E-001 -3.7540E-003 8.8920E-004 3.8763E-004 0.0000E+000
 -3.5431E-001 -8.8956E-002 5.5397E-001 -3.0710E-003 8.9092E-004 3.9158E-004 0.0000E+000
 -3.5053E-001 -8.8956E-002 5.6392E-001 -1.7760E-003 9.7660E-004 4.0753E-004 0.0000E+000
 -3.4675E-001 -8.8956E-002 5.7450E-001 7.6100E-004 1.0071E-003 5.0302E-004 0.0000E+000
 -3.4296E-001 -8.8956E-002 5.8523E-001 3.2890E-003 8.9241E-004 5.3678E-004 0.0000E+000
 -3.3918E-001 -8.8956E-002 5.9643E-001 6.0130E-003 8.6502E-004 5.7145E-004 0.0000E+000
 -3.3540E-001 -8.8956E-002 6.0377E-001 9.7780E-003 9.6958E-004 6.5508E-004 0.0000E+000
 -3.3161E-001 -8.8956E-002 6.0911E-001 1.3597E-002 9.9590E-004 8.5534E-004 0.0000E+000
 -3.2783E-001 -8.8956E-002 6.1067E-001 2.0929E-002 1.5163E-003 1.0303E-003 0.0000E+000
 -3.2405E-001 -8.8956E-002 0.0000E+000 0.0000E+000 0.0000E+000 0.0000E+000 1.0000E+000
 -3.2026E-001 -8.8956E-002 0.0000E+000 0.0000E+000 0.0000E+000 0.0000E+000 1.0000E+000
 -3.1648E-001 -8.8956E-002 0.0000E+000 0.0000E+000 0.0000E+000 0.0000E+000 1.0000E+000
 -3.1270E-001 -8.8956E-002 0.0000E+000 0.0000E+000 0.0000E+000 0.0000E+000 1.0000E+000
 -3.0891E-001 -8.8956E-002 0.0000E+000 0.0000E+000 0.0000E+000 0.0000E+000 1.0000E+000
 -3.0513E-001 -8.8956E-002 0.0000E+000 0.0000E+000 0.0000E+000 0.0000E+000 1.0000E+000
 -3.0135E-001 -8.8956E-002 0.0000E+000 0.0000E+000 0.0000E+000 0.0000E+000 1.0000E+000
 -2.9757E-001 -8.8956E-002 0.0000E+000 0.0000E+000 0.0000E+000 0.0000E+000 1.0000E+000
 -2.9378E-001 -8.8956E-002 0.0000E+000 0.0000E+000 0.0000E+000 0.0000E+000 1.0000E+000
 -2.9000E-001 -8.8956E-002 0.0000E+000 0.0000E+000 0.0000E+000 0.0000E+000 1.0000E+000
 -2.8622E-001 -8.8956E-002 0.0000E+000 0.0000E+000 0.0000E+000 0.0000E+000 1.0000E+000
 -2.8243E-001 -8.8956E-002 0.0000E+000 0.0000E+000 0.0000E+000 0.0000E+000 1.0000E+000
 -2.7865E-001 -8.8956E-002 3.5991E-001 2.1561E-001 3.2389E-004 5.5227E-004 0.0000E+000
 -2.7487E-001 -8.8956E-002 3.6858E-001 2.0991E-001 2.2179E-004 3.5858E-004 0.0000E+000
 -2.7108E-001 -8.8956E-002 3.7684E-001 2.0836E-001 2.4387E-004 3.5632E-004 0.0000E+000
 -2.6730E-001 -8.8956E-002 3.8247E-001 2.1129E-001 2.5745E-004 3.9934E-004 0.0000E+000
 -2.6352E-001 -8.8956E-002 3.8552E-001 2.1421E-001 2.7863E-004 4.4464E-004 0.0000E+000
 -2.5973E-001 -8.8956E-002 3.8744E-001 2.1640E-001 3.2652E-004 4.2668E-004 0.0000E+000
 -2.5595E-001 -8.8956E-002 3.9066E-001 2.1919E-001 3.8558E-004 4.3704E-004 0.0000E+000
 -2.5217E-001 -8.8956E-002 3.9405E-001 2.2253E-001 3.9452E-004 4.4576E-004 0.0000E+000
 -2.4838E-001 -8.8956E-002 3.9628E-001 2.2540E-001 3.8493E-004 4.1261E-004 0.0000E+000
 -2.4460E-001 -8.8956E-002 3.9762E-001 2.2805E-001 3.8832E-004 3.8985E-004 0.0000E+000
 -2.4082E-001 -8.8956E-002 3.9775E-001 2.3030E-001 3.6692E-004 4.2908E-004 0.0000E+000
 -2.3703E-001 -8.8956E-002 3.9777E-001 2.3080E-001 3.9456E-004 4.7069E-004 0.0000E+000
 -2.3325E-001 -8.8956E-002 3.9744E-001 2.3185E-001 3.9959E-004 5.1293E-004 0.0000E+000
 -2.2947E-001 -8.8956E-002 3.9786E-001 2.3357E-001 4.1945E-004 5.3069E-004 0.0000E+000
 -2.2568E-001 -8.8956E-002 3.9767E-001 2.3463E-001 4.2233E-004 5.6386E-004 0.0000E+000
 -2.2190E-001 -8.8956E-002 3.9780E-001 2.3672E-001 4.1818E-004 5.4191E-004 0.0000E+000
 -2.1812E-001 -8.8956E-002 3.9709E-001 2.3794E-001 4.1940E-004 5.3355E-004 0.0000E+000
 -2.1433E-001 -8.8956E-002 3.8912E-001 2.3847E-001 4.0297E-004 3.5040E-004 0.0000E+000
 -2.1055E-001 -8.8956E-002 3.8960E-001 2.4083E-001 3.7713E-004 3.2589E-004 0.0000E+000
 -2.0677E-001 -8.8956E-002 3.8992E-001 2.4185E-001 3.6288E-004 3.2592E-004 0.0000E+000
 -2.0299E-001 -8.8956E-002 3.8934E-001 2.4200E-001 4.0333E-004 3.4534E-004 0.0000E+000
 -1.9920E-001 -8.8956E-002 3.8701E-001 2.4194E-001 4.2722E-004 3.6732E-004 0.0000E+000
 -1.9542E-001 -8.8956E-002 3.8294E-001 2.4152E-001 4.3991E-004 3.5750E-004 0.0000E+000
 -1.9164E-001 -8.8956E-002 3.8078E-001 2.4089E-001 4.1709E-004 3.8047E-004 0.0000E+000
 -1.8785E-001 -8.8956E-002 3.7982E-001 2.4129E-001 4.1049E-004 4.2615E-004 0.0000E+000
 -1.8407E-001 -8.8956E-002 3.7856E-001 2.4165E-001 3.7325E-004 4.8846E-004 0.0000E+000
 -1.8029E-001 -8.8956E-002 3.7783E-001 2.4133E-001 3.4080E-004 4.6451E-004 0.0000E+000
 -1.7650E-001 -8.8956E-002 3.7623E-001 2.4068E-001 3.5302E-004 4.1040E-004 0.0000E+000
 -1.7272E-001 -8.8956E-002 3.7508E-001 2.3896E-001 3.6312E-004 3.8901E-004 0.0000E+000
 -1.6894E-001 -8.8956E-002 3.7349E-001 2.3635E-001 3.7365E-004 3.9845E-004 0.0000E+000
 -1.6515E-001 -8.8956E-002 3.7169E-001 2.3314E-001 3.4946E-004 3.8922E-004 0.0000E+000
 -1.6137E-001 -8.8956E-002 3.7098E-001 2.3238E-001 3.5206E-004 4.2746E-004 0.0000E+000
 -1.5759E-001 -8.8956E-002 3.7214E-001 2.3010E-001 3.4786E-004 4.0132E-004 0.0000E+000
 -1.5380E-001 -8.8956E-002 3.7478E-001 2.2851E-001 3.3866E-004 4.1025E-004 0.0000E+000
 -1.5002E-001 -8.8956E-002 3.7649E-001 2.2534E-001 3.2314E-004 3.7115E-004 0.0000E+000